[Molden Format]
Written by Sparrow, the semiempirical library of the SCINE software package
[Atoms] (AU)
C    1         6               -0.2311701969       0.1089238139      -0.2746716923
C    2         6               -0.2749929458      -0.5499103025       2.3842674525
C    3         6                1.8892347967      -0.8079524049       3.8759605641
C    4         6                4.2896972021       0.0481313244       2.4222509476
C    5         6                4.3005631273       0.7304925311      -0.1171063280
C    6         6                1.9722693626       0.5215455134      -1.5879935550
H    7         1               -2.1213876512      -0.3391491477       3.4983554898
H    8         1                1.8360768008      -1.2514333321       5.8988178951
H    9         1                5.9739912004       0.2257844775       3.6873469996
H    10        1                6.1562363879       0.9153644379      -1.1541502311
H    11        1                1.7513792758       0.4433486463      -3.6479084153
N    12        7               -2.7914089462      -0.0714694421      -1.5870486919
O    13        8               -2.6206343963      -0.9889881678      -3.7627470720
O    14        8               -4.7599555484       1.0134979156      -0.4014912126
[GTO]
1 0
s    6    1.00 
    116.0690322429      -0.1046234805
     21.2858804144      -0.1459904193
      5.9817916163      -0.1403997584
      0.8554094819       0.2121298425
      0.3882374328       0.1970386706
      0.1851482379       0.0344592482
p    6    1.00 
     17.0160777741       0.3903657330
      4.4374470513       0.4722439228
      1.5877608354       0.4822910285
      0.6637143790       0.3458254681
      0.3034954267       0.1288339964
      0.1434819294       0.0132401392

2 0
s    6    1.00 
    116.0690322429      -0.1046234805
     21.2858804144      -0.1459904193
      5.9817916163      -0.1403997584
      0.8554094819       0.2121298425
      0.3882374328       0.1970386706
      0.1851482379       0.0344592482
p    6    1.00 
     17.0160777741       0.3903657330
      4.4374470513       0.4722439228
      1.5877608354       0.4822910285
      0.6637143790       0.3458254681
      0.3034954267       0.1288339964
      0.1434819294       0.0132401392

3 0
s    6    1.00 
    116.0690322429      -0.1046234805
     21.2858804144      -0.1459904193
      5.9817916163      -0.1403997584
      0.8554094819       0.2121298425
      0.3882374328       0.1970386706
      0.1851482379       0.0344592482
p    6    1.00 
     17.0160777741       0.3903657330
      4.4374470513       0.4722439228
      1.5877608354       0.4822910285
      0.6637143790       0.3458254681
      0.3034954267       0.1288339964
      0.1434819294       0.0132401392

4 0
s    6    1.00 
    116.0690322429      -0.1046234805
     21.2858804144      -0.1459904193
      5.9817916163      -0.1403997584
      0.8554094819       0.2121298425
      0.3882374328       0.1970386706
      0.1851482379       0.0344592482
p    6    1.00 
     17.0160777741       0.3903657330
      4.4374470513       0.4722439228
      1.5877608354       0.4822910285
      0.6637143790       0.3458254681
      0.3034954267       0.1288339964
      0.1434819294       0.0132401392

5 0
s    6    1.00 
    116.0690322429      -0.1046234805
     21.2858804144      -0.1459904193
      5.9817916163      -0.1403997584
      0.8554094819       0.2121298425
      0.3882374328       0.1970386706
      0.1851482379       0.0344592482
p    6    1.00 
     17.0160777741       0.3903657330
      4.4374470513       0.4722439228
      1.5877608354       0.4822910285
      0.6637143790       0.3458254681
      0.3034954267       0.1288339964
      0.1434819294       0.0132401392

6 0
s    6    1.00 
    116.0690322429      -0.1046234805
     21.2858804144      -0.1459904193
      5.9817916163      -0.1403997584
      0.8554094819       0.2121298425
      0.3882374328       0.1970386706
      0.1851482379       0.0344592482
p    6    1.00 
     17.0160777741       0.3903657330
      4.4374470513       0.4722439228
      1.5877608354       0.4822910285
      0.6637143790       0.3458254681
      0.3034954267       0.1288339964
      0.1434819294       0.0132401392

7 0
s    6    1.00 
     37.1831737285       0.0983412856
      6.8174942006       0.1484283848
      1.9072891990       0.1949490512
      0.6552053164       0.1923335159
      0.2544353976       0.1063406754
      0.1047905476       0.0171084112

8 0
s    6    1.00 
     37.1831737285       0.0983412856
      6.8174942006       0.1484283848
      1.9072891990       0.1949490512
      0.6552053164       0.1923335159
      0.2544353976       0.1063406754
      0.1047905476       0.0171084112

9 0
s    6    1.00 
     37.1831737285       0.0983412856
      6.8174942006       0.1484283848
      1.9072891990       0.1949490512
      0.6552053164       0.1923335159
      0.2544353976       0.1063406754
      0.1047905476       0.0171084112

10 0
s    6    1.00 
     37.1831737285       0.0983412856
      6.8174942006       0.1484283848
      1.9072891990       0.1949490512
      0.6552053164       0.1923335159
      0.2544353976       0.1063406754
      0.1047905476       0.0171084112

11 0
s    6    1.00 
     37.1831737285       0.0983412856
      6.8174942006       0.1484283848
      1.9072891990       0.1949490512
      0.6552053164       0.1923335159
      0.2544353976       0.1063406754
      0.1047905476       0.0171084112

12 0
s    6    1.00 
    156.8722084896      -0.1311448979
     28.7687680834      -0.1829981046
      8.0846444865      -0.1759902450
      1.1561221111       0.2659034700
      0.5247193186       0.2469867777
      0.2502356779       0.0431944585
p    6    1.00 
     23.4554482379       0.5830449406
      6.1167039198       0.7053370895
      2.1886149431       0.7203433097
      0.9148828812       0.5165202079
      0.4183467757       0.1924247019
      0.1977795949       0.0197752916

13 0
s    6    1.00 
    813.8100984652      -0.4508003008
    149.2444978754      -0.6290416320
     41.9409236915      -0.6049526644
      5.9976452051       0.9140223237
      2.7221002652       0.8489976775
      1.2981542343       0.1484775632
p    6    1.00 
     30.2642722266       0.8017891105
      7.8923067546       0.9699622760
      2.8239425555       0.9905984621
      1.1804619674       0.7103059287
      0.5397876253       0.2646177332
      0.2551925438       0.0271944962

14 0
s    6    1.00 
    813.8100984652      -0.4508003008
    149.2444978754      -0.6290416320
     41.9409236915      -0.6049526644
      5.9976452051       0.9140223237
      2.7221002652       0.8489976775
      1.2981542343       0.1484775632
p    6    1.00 
     30.2642722266       0.8017891105
      7.8923067546       0.9699622760
      2.8239425555       0.9905984621
      1.1804619674       0.7103059287
      0.5397876253       0.2646177332
      0.2551925438       0.0271944962

[5D]
[7F]
[9G]
[MO]
Sym=      A1        
Ene=      -1.2276982086
Spin=     Alpha     
Occup=    2.0       
   1      0.1798106388
   2     -0.0983881741
   3     -0.0164188459
   4     -0.0895890795
   5      0.0325936388
   6     -0.0130195498
   7      0.0041996499
   8     -0.0365352912
   9     -0.0010879114
  10     -0.0021801333
  11      0.0004878660
  12     -0.0052171366
  13     -0.0000835924
  14     -0.0026546548
  15      0.0000425069
  16     -0.0024931177
  17      0.0049098657
  18     -0.0102871319
  19     -0.0017320285
  20     -0.0030810780
  21      0.0677867426
  22     -0.0549754936
  23     -0.0108834342
  24      0.0005451784
  25      0.0133924887
  26     -0.0017396159
  27     -0.0011177190
  28      0.0000355057
  29      0.0391139443
  30      0.6505515313
  31      0.0292731486
  32     -0.0804546660
  33     -0.2158569346
  34      0.5376668515
  35     -0.0190204319
  36      0.1434291854
  37      0.3338336185
  38      0.1116605982
  39      0.1128741847
  40     -0.0702044228
  41     -0.0934137691
Sym=      A1        
Ene=      -1.1044894160
Spin=     Alpha     
Occup=    2.0       
   1      0.2703518721
   2     -0.0338808396
   3      0.0099471851
   4      0.0518073991
   5      0.2158958917
   6      0.0191757273
   7      0.0261482465
   8     -0.0618323088
   9      0.1278389775
  10     -0.0246516657
  11      0.0187868361
  12     -0.0567532655
  13      0.1152310299
  14     -0.0407321227
  15      0.0014157906
  16     -0.0295905355
  17      0.1226405858
  18     -0.0477321599
  19     -0.0160923109
  20      0.0214209030
  21      0.1504714750
  22     -0.0282629863
  23     -0.0071320388
  24      0.0663419897
  25      0.0771131450
  26      0.0339370407
  27      0.0300388411
  28      0.0310608158
  29      0.0369365173
  30      0.2684783017
  31     -0.1351858137
  32      0.1867748223
  33      0.3391645781
  34     -0.4258788084
  35     -0.0133576701
  36     -0.0201555778
  37     -0.0683201982
  38      0.5335261978
  39      0.2216288868
  40     -0.1032610442
  41     -0.0869724809
Sym=      A1        
Ene=      -1.0925974747
Spin=     Alpha     
Occup=    2.0       
   1     -0.3447243023
   2     -0.1721150636
   3      0.0099863047
   4     -0.0218469619
   5     -0.2892585716
   6     -0.1098065046
   7     -0.0222293419
   8      0.0521438878
   9     -0.2597583729
  10      0.0176437368
  11     -0.0365853211
  12      0.1085373583
  13     -0.2879263172
  14      0.0818607550
  15     -0.0074804621
  16      0.0820343555
  17     -0.3344561834
  18      0.1129868739
  19      0.0416684359
  20     -0.0411187751
  21     -0.3919083482
  22      0.0247010956
  23      0.0273177381
  24     -0.1249692821
  25     -0.0694084724
  26     -0.0699816304
  27     -0.0791869497
  28     -0.0934079144
  29     -0.1223766526
  30      0.1409999454
  31     -0.2061928454
  32      0.0792108520
  33      0.0735503799
  34     -0.0761417930
  35     -0.0523761100
  36      0.0094419360
  37      0.0000670395
  38      0.3588163795
  39      0.1157688991
  40     -0.0706555305
  41     -0.0810538873
Sym=      A1        
Ene=      -0.9828213941
Spin=     Alpha     
Occup=    2.0       
   1     -0.3878694616
   2      0.0490862154
   3     -0.0064828890
   4      0.1321503625
   5      0.0587364956
   6      0.1210264242
   7     -0.0267652798
   8      0.1733299834
   9      0.3401031410
  10      0.0465024777
  11      0.0312042109
  12     -0.0412553154
  13      0.4055166765
  14     -0.0371107936
  15      0.0015370607
  16     -0.0162351201
  17      0.2236921588
  18      0.0574426066
  19     -0.0326591437
  20      0.1518137426
  21     -0.2182471117
  22      0.1880134701
  23      0.0212725871
  24      0.0311025484
  25      0.0172167694
  26      0.1340821822
  27      0.1633146699
  28      0.0851298914
  29     -0.1185933257
  30     -0.1168283743
  31     -0.2735256041
  32     -0.0130341400
  33     -0.1330230792
  34      0.2636700360
  35     -0.0910061162
  36      0.0046087510
  37     -0.0112627753
  38      0.2792351445
  39     -0.0144246639
  40     -0.0269390852
  41     -0.0537704169
Sym=      A1        
Ene=      -0.9669298764
Spin=     Alpha     
Occup=    2.0       
   1      0.0964563463
   2     -0.1454188136
   3     -0.0630726216
   4      0.1890165524
   5      0.4705729860
   6      0.0479289534
   7     -0.0031004022
   8      0.0709775749
   9      0.3761762859
  10     -0.1577170991
  11      0.0049315074
  12     -0.0326838424
  13     -0.1150511199
  14     -0.0978540545
  15     -0.0594540904
  16      0.1814261367
  17     -0.4212635253
  18      0.0386846646
  19      0.0182909083
  20      0.0380155176
  21     -0.3451157172
  22     -0.1195557387
  23     -0.0145039125
  24     -0.0154181398
  25      0.1967279723
  26      0.1585582155
  27     -0.0395268798
  28     -0.1764086983
  29     -0.1422631656
  30      0.0382796110
  31      0.0868537623
  32     -0.0395657740
  33      0.0392825718
  34     -0.0165376166
  35      0.0120144923
  36     -0.0118815075
  37      0.0168930779
  38     -0.1701628016
  39     -0.0004141553
  40      0.0032008917
  41      0.0323288039
Sym=      A1        
Ene=      -0.8834271385
Spin=     Alpha     
Occup=    2.0       
   1      0.0545785137
   2      0.2587889202
   3      0.0218830707
   4      0.0539102156
   5      0.1626147306
   6      0.0404845111
   7      0.0028167990
   8      0.0212151356
   9      0.0166264373
  10     -0.1566613383
  11     -0.0180378198
  12     -0.0062611687
  13     -0.3593794029
  14     -0.0847644102
  15     -0.0271668657
  16      0.0274526901
  17     -0.1376548096
  18     -0.1406142959
  19      0.0238072543
  20     -0.1943536349
  21      0.2808963656
  22     -0.0423499376
  23     -0.0078268204
  24     -0.0031205172
  25      0.0587424529
  26      0.0056480828
  27     -0.1902579849
  28     -0.0748103927
  29      0.1289232151
  30     -0.3255835839
  31     -0.1486035176
  32      0.0107626810
  33     -0.0903750768
  34      0.3826232468
  35     -0.0246952591
  36     -0.0419204292
  37     -0.1433329728
  38      0.4432982849
  39     -0.1046452149
  40      0.0416121186
  41      0.0224459390
Sym=      A1        
Ene=      -0.8024507973
Spin=     Alpha     
Occup=    2.0       
   1      0.1095192280
   2     -0.1370301030
   3     -0.0785735249
   4      0.3239641529
   5      0.2927683251
   6     -0.1918173494
   7      0.0532779561
   8     -0.1977130150
   9     -0.3908281613
  10     -0.1358525424
  11      0.0146565195
  12     -0.1386001072
  13     -0.0537631340
  14      0.1153612711
  15      0.0890901262
  16     -0.2564566184
  17      0.2448415287
  18      0.1177090025
  19     -0.0012191387
  20      0.0636265596
  21     -0.2507118580
  22      0.1245287899
  23      0.0042939323
  24      0.1465904690
  25      0.1631040980
  26     -0.2594784289
  27     -0.0568782198
  28      0.1468764522
  29     -0.1987308202
  30     -0.0765089379
  31      0.0092403379
  32     -0.0598999954
  33      0.0908662598
  34      0.2026637678
  35     -0.0167102844
  36     -0.0836393792
  37     -0.0816680311
  38      0.0214323829
  39     -0.0063519657
  40     -0.0099114242
  41      0.0614519301
Sym=      A1        
Ene=      -0.7816891600
Spin=     Alpha     
Occup=    2.0       
   1      0.2760640030
   2     -0.0149524632
   3      0.0028938501
   4     -0.0585581678
   5     -0.1568299565
   6     -0.0108829574
   7      0.0442676534
   8     -0.2185983032
   9     -0.0789408595
  10      0.2527442990
  11      0.0406336563
  12     -0.0400398462
  13      0.3275172243
  14      0.0636785359
  15     -0.0129022572
  16      0.1400889470
  17     -0.2515350450
  18      0.0300308960
  19     -0.0325218003
  20      0.2617161632
  21     -0.1226612209
  22     -0.3004987020
  23     -0.0462668827
  24      0.0413242271
  25     -0.1195667780
  26     -0.0649514478
  27      0.2255851615
  28     -0.1712627433
  29     -0.0623720275
  30     -0.1694346917
  31      0.2098228930
  32      0.0223097781
  33      0.0882181102
  34      0.2382499759
  35      0.1185194663
  36     -0.0729283779
  37     -0.1572769423
  38      0.2786740311
  39     -0.0974982690
  40      0.1017330841
  41      0.1274872409
Sym=      A1        
Ene=      -0.6990865100
Spin=     Alpha     
Occup=    2.0       
   1     -0.0459510162
   2     -0.3248500074
   3     -0.0123582312
   4     -0.1868712680
   5      0.0131560652
   6     -0.1479024964
   7     -0.0493600530
   8      0.2017578977
   9      0.1253571428
  10     -0.0858872297
  11     -0.0648401462
  12      0.2244484361
  13     -0.0537916867
  14      0.1227047321
  15      0.0159021647
  16      0.0007566636
  17      0.1705300104
  18      0.2185560627
  19      0.0404992236
  20     -0.1415990135
  21      0.0021955146
  22      0.0981708375
  23      0.0295900303
  24     -0.2389179741
  25      0.1437116246
  26      0.2058832484
  27      0.0381737582
  28      0.2403676348
  29      0.1502790762
  30     -0.0152121844
  31      0.3910639722
  32      0.0207791277
  33      0.1677018892
  34      0.1311177695
  35      0.2525324294
  36     -0.0714058092
  37     -0.1177620992
  38      0.1929052656
  39     -0.0605024052
  40      0.1317076033
  41      0.2129682273
Sym=      A1        
Ene=      -0.6671713341
Spin=     Alpha     
Occup=    2.0       
   1     -0.0113699165
   2      0.0590342270
   3     -0.0903633107
   4     -0.0351235112
   5      0.0529287386
   6      0.0438082682
   7     -0.0396282328
   8      0.0274092743
   9     -0.0376683031
  10     -0.0813216863
  11     -0.0052444505
  12     -0.0739032797
  13     -0.0193479435
  14     -0.0017317011
  15      0.0176053390
  16     -0.0923631259
  17      0.0222460751
  18      0.0339981349
  19     -0.0188730515
  20      0.0636402807
  21     -0.0754014945
  22     -0.0373256927
  23     -0.0483897725
  24      0.0533337786
  25      0.0053529977
  26     -0.0634445036
  27     -0.0455733764
  28      0.0075292391
  29     -0.0682740421
  30     -0.0364710218
  31      0.1925944179
  32     -0.2636585701
  33     -0.3336772330
  34     -0.3839260294
  35      0.0620347452
  36      0.1093857605
  37      0.4601173598
  38      0.3592064100
  39     -0.4033725005
  40      0.1475735613
  41      0.1425403423
Sym=      A1        
Ene=      -0.6269613911
Spin=     Alpha     
Occup=    2.0       
   1     -0.0620719569
   2      0.0974659381
   3      0.0890924661
   4     -0.0062089702
   5      0.2355979214
   6     -0.2312409497
   7      0.0342915614
   8      0.1524562781
   9     -0.1954726613
  10     -0.1214598168
  11      0.0436365956
  12     -0.0484602516
  13      0.1632713261
  14      0.3209922654
  15      0.0691081076
  16      0.1027654461
  17     -0.1298786133
  18      0.1501284716
  19      0.0205875478
  20      0.0886895828
  21      0.1192871855
  22     -0.1666064976
  23      0.0223447484
  24     -0.2873944420
  25      0.2853599459
  26     -0.1374815114
  27      0.2951400674
  28     -0.0056309475
  29      0.2561100395
  30     -0.0581551839
  31     -0.1247455843
  32      0.2089268744
  33     -0.2240004696
  34     -0.0807239494
  35     -0.0617791868
  36      0.2554832855
  37     -0.0027318212
  38     -0.0431496459
  39      0.0176254157
  40      0.0779184404
  41     -0.1433909906
Sym=      A1        
Ene=      -0.6255294861
Spin=     Alpha     
Occup=    2.0       
   1     -0.0339774171
   2      0.0009264215
   3     -0.1923473914
   4      0.1027705183
   5      0.0462427696
   6     -0.1485187707
   7     -0.0339677478
   8     -0.0973494907
   9     -0.0452113129
  10      0.1194441881
  11     -0.0173543886
  12      0.0444086121
  13      0.0892231687
  14      0.1196351788
  15     -0.0455368234
  16      0.2109411582
  17     -0.0875890623
  18     -0.0066723639
  19     -0.0155909722
  20     -0.1194300980
  21      0.1436022287
  22      0.0807983081
  23     -0.0630319354
  24     -0.1976404839
  25      0.0771755094
  26      0.0075829716
  27      0.1908480179
  28     -0.0089556535
  29      0.1878552828
  30     -0.0021040618
  31     -0.1861516108
  32     -0.5138985687
  33      0.1843576906
  34     -0.0153681633
  35     -0.1270392334
  36     -0.4029356004
  37      0.1822770962
  38     -0.0094039161
  39     -0.0845286172
  40     -0.3077253740
  41      0.1104309210
Sym=      A1        
Ene=      -0.5816839780
Spin=     Alpha     
Occup=    2.0       
   1     -0.2289597445
   2     -0.1701601574
   3     -0.0570488988
   4     -0.1117719671
   5      0.0580959418
   6      0.1366115694
   7     -0.0660505799
   8      0.1858053844
   9     -0.0516518262
  10     -0.0563157950
  11      0.1016697986
  12     -0.4761371482
  13      0.1098418118
  14     -0.2420927095
  15     -0.0331628237
  16     -0.1354833134
  17     -0.0718220723
  18     -0.1938307130
  19     -0.0919628560
  20      0.1622879694
  21      0.0582584779
  22      0.1235919974
  23     -0.0185498487
  24     -0.2799141359
  25      0.0077395166
  26     -0.3657563616
  27     -0.1397557741
  28     -0.2134626955
  29      0.2231752300
  30      0.0599722818
  31      0.1199691381
  32     -0.0182146053
  33      0.1281490058
  34      0.0444036213
  35      0.1681683964
  36     -0.0833796741
  37     -0.0470226594
  38      0.0061654257
  39      0.0567840428
  40     -0.0064134530
  41      0.0885741536
Sym=      A1        
Ene=      -0.5719348140
Spin=     Alpha     
Occup=    2.0       
   1     -0.0292052695
   2     -0.1891625605
   3     -0.0200898031
   4      0.3134835096
   5      0.0401197378
   6     -0.0478151286
   7      0.0942156017
   8     -0.2838407362
   9      0.0074928711
  10      0.3083255686
  11      0.0785464774
  12     -0.1130711620
  13      0.0299099234
  14     -0.1270696559
  15     -0.1256709103
  16      0.3611464015
  17     -0.0116524106
  18     -0.1333086444
  19      0.0471847813
  20     -0.3698344052
  21      0.0293445680
  22      0.3770089903
  23      0.0821632786
  24     -0.0755872222
  25     -0.0470530153
  26     -0.0861760157
  27      0.0907529949
  28      0.0446862773
  29      0.0527101630
  30     -0.0070149585
  31      0.1091318895
  32      0.1571575964
  33     -0.1387085783
  34     -0.0446148063
  35      0.0444492198
  36      0.2413697680
  37      0.0156564363
  38      0.0470479153
  39     -0.0376685376
  40      0.1923010991
  41      0.0032255879
Sym=      A1        
Ene=      -0.5533776431
Spin=     Alpha     
Occup=    2.0       
   1     -0.0868274588
   2     -0.0587720626
   3      0.1396410408
   4     -0.0359103547
   5     -0.0091848205
   6     -0.4240337447
   7      0.1066870488
   8      0.1667677176
   9     -0.0810813465
  10      0.0955049421
  11      0.0540239931
  12      0.2566426578
  13      0.0735379817
  14     -0.0560568944
  15      0.0961848811
  16     -0.0479652777
  17     -0.0016487297
  18     -0.4911831713
  19      0.0061549932
  20      0.1473161143
  21      0.0915326077
  22      0.1746851119
  23      0.1179892318
  24      0.2325845322
  25      0.3173604545
  26      0.1251225171
  27     -0.0035455938
  28     -0.3552091076
  29     -0.1229548834
  30      0.0127122166
  31      0.0611060864
  32     -0.0176894707
  33      0.0006667852
  34     -0.0078004115
  35      0.0166697891
  36     -0.0065758854
  37      0.0437061309
  38      0.0202008863
  39     -0.0057614582
  40      0.0252979828
  41      0.0968499790
Sym=      A1        
Ene=      -0.5052437381
Spin=     Alpha     
Occup=    2.0       
   1      0.0001360974
   2      0.0353219509
   3      0.3452334005
   4     -0.1180121740
   5     -0.0129352177
   6      0.1684330519
   7      0.2162583562
   8      0.2409047788
   9     -0.0159518536
  10     -0.1291555954
  11      0.2864528404
  12     -0.1895468207
  13     -0.0240820546
  14      0.0471735381
  15      0.2014277325
  16      0.2949294688
  17      0.0144063598
  18      0.0234608728
  19      0.3349216374
  20     -0.1883710664
  21     -0.0005798335
  22     -0.0558766498
  23      0.3068898311
  24      0.2092178083
  25     -0.0148861393
  26     -0.2027220592
  27      0.1621035906
  28      0.1234393862
  29     -0.1645668462
  30      0.0374633290
  31      0.0435944522
  32     -0.0829045757
  33      0.0726390902
  34      0.0128381829
  35      0.0143884660
  36     -0.1851363554
  37      0.0683696281
  38      0.0103984769
  39      0.0023400949
  40     -0.0523248476
  41      0.0999352309
Sym=      A1        
Ene=      -0.4869545822
Spin=     Alpha     
Occup=    2.0       
   1     -0.0521239536
   2      0.0996901191
   3     -0.2331797710
   4     -0.1827568543
   5      0.0370688726
   6      0.0768123242
   7     -0.3040177697
   8      0.1485779448
   9     -0.0640266518
  10     -0.1763560566
  11     -0.2182391626
  12     -0.1316355281
  13      0.0035359016
  14      0.3250307230
  15     -0.1818785704
  16      0.1713566840
  17     -0.0332323162
  18     -0.1671126232
  19     -0.1952457125
  20     -0.2347190883
  21      0.0341059091
  22      0.1548291617
  23     -0.2336466184
  24      0.3277972177
  25      0.0094635881
  26     -0.1038803725
  27      0.2842239610
  28     -0.0621691625
  29     -0.2407746760
  30      0.0461149846
  31      0.0642322280
  32      0.0556238717
  33      0.0439825204
  34      0.0227594593
  35      0.1468868023
  36      0.0144865176
  37     -0.0609976396
  38     -0.0040515827
  39      0.0864442822
  40      0.0421550682
  41     -0.0065969618
Sym=      A1        
Ene=      -0.4612731088
Spin=     Alpha     
Occup=    2.0       
   1     -0.0159420530
   2     -0.1130659266
   3     -0.0130848639
   4      0.2475019541
   5      0.0069455881
   6      0.3437591117
   7      0.0196383843
   8     -0.1867453111
   9     -0.0233557870
  10     -0.3557430949
  11     -0.0379740896
  12      0.1785423824
  13     -0.0320817079
  14      0.3359433755
  15      0.2826057718
  16     -0.0891982172
  17     -0.0220767228
  18     -0.2326546896
  19      0.1306386050
  20      0.1623747942
  21      0.0440977817
  22      0.1950307168
  23      0.1381678897
  24     -0.1311993397
  25     -0.3122136846
  26      0.1396618265
  27      0.1841335987
  28     -0.2354612101
  29      0.1288216926
  30      0.0239381733
  31      0.0407158700
  32      0.0021423414
  33      0.0105317193
  34      0.0008399159
  35      0.0817138235
  36     -0.0028646030
  37      0.0262307695
  38      0.0093227581
  39      0.0058984226
  40      0.0530480216
  41      0.0037163591
Sym=      A1        
Ene=      -0.4209575743
Spin=     Alpha     
Occup=    2.0       
   1      0.0411511220
   2     -0.1121229863
   3      0.0776126445
   4     -0.0492975958
   5     -0.0082092883
   6      0.0269595012
   7     -0.0497460930
   8      0.0320186198
   9      0.0094544846
  10     -0.0317553856
  11     -0.0907800479
  12     -0.0464227774
  13      0.0122823216
  14      0.0430338047
  15     -0.0998295110
  16     -0.0379837466
  17     -0.0092160304
  18     -0.0139789304
  19     -0.0795352721
  20     -0.0060202662
  21      0.0232240054
  22      0.0172338434
  23      0.0391972087
  24     -0.0335094577
  25     -0.0166923288
  26     -0.0158558033
  27      0.0121286363
  28     -0.0225073936
  29      0.0104554432
  30      0.0150872829
  31      0.0649113509
  32      0.0340877495
  33      0.0008685195
  34      0.0006426853
  35     -0.6600237409
  36     -0.3277011475
  37      0.0958539851
  38      0.0166371050
  39      0.1580230219
  40      0.5919612993
  41      0.0563258858
Sym=      A1        
Ene=      -0.4183023844
Spin=     Alpha     
Occup=    2.0       
   1      0.0377462989
   2     -0.0957078740
   3      0.0293950805
   4     -0.0610943852
   5     -0.0250061733
   6      0.0629232682
   7     -0.0560371939
   8      0.0306480716
   9      0.0132398631
  10     -0.0539696014
  11     -0.0566690892
  12     -0.0450470500
  13      0.0020432576
  14      0.0410637986
  15     -0.0234366529
  16     -0.0093354250
  17     -0.0000732130
  18     -0.0278140122
  19     -0.0077130890
  20     -0.0056236720
  21      0.0126600427
  22      0.0174558616
  23      0.0371325934
  24     -0.0006322709
  25     -0.0362741706
  26     -0.0191156414
  27      0.0248474056
  28     -0.0203187480
  29     -0.0067949471
  30      0.0249431883
  31      0.0510245366
  32     -0.0503875002
  33      0.0443832056
  34      0.0004469646
  35     -0.4928073988
  36      0.4845483582
  37     -0.2210589627
  38      0.0184947762
  39     -0.0930623629
  40     -0.3464691093
  41      0.5447393814
Sym=      A1        
Ene=      -0.3993151805
Spin=     Alpha     
Occup=    2.0       
   1      0.0959682736
   2     -0.2298711209
   3     -0.0730032512
   4     -0.1572304943
   5      0.0075115338
   6     -0.0282957552
   7     -0.1838433479
   8      0.0362070984
   9      0.0127531916
  10     -0.0038905852
  11     -0.0826045923
  12     -0.0645737405
  13      0.0138090218
  14     -0.0380546028
  15      0.0935632781
  16      0.0418091370
  17      0.0368661181
  18     -0.0882964516
  19      0.1683420630
  20      0.0030035542
  21     -0.0072214644
  22      0.0526385345
  23      0.0978038216
  24      0.0065545009
  25      0.0055855423
  26     -0.0332249715
  27      0.0107955178
  28     -0.0294146734
  29     -0.0237367585
  30      0.0483979515
  31      0.0804278653
  32      0.0002917929
  33      0.0428662363
  34      0.0118130682
  35     -0.2477858242
  36     -0.0295893342
  37     -0.2391876872
  38      0.0116127093
  39     -0.5671985229
  40     -0.1130535487
  41     -0.5754150040
Sym=      A1        
Ene=      -0.3841814325
Spin=     Alpha     
Occup=    2.0       
   1     -0.0464525009
   2      0.1162471189
   3     -0.3865943301
   4     -0.0800246935
   5      0.0290994814
   6     -0.1005474280
   7     -0.4037784828
   8     -0.0808620024
   9      0.0060216096
  10      0.1023822901
  11     -0.0969897576
  12     -0.0395737977
  13     -0.0041085050
  14     -0.1773292613
  15      0.4140075643
  16      0.1367181968
  17      0.0469462172
  18     -0.0179996780
  19      0.5313870408
  20      0.0905383250
  21      0.0011443853
  22     -0.0666085747
  23      0.0080804588
  24      0.0104626140
  25      0.0475684089
  26     -0.0131421380
  27     -0.0344534200
  28      0.0350378623
  29     -0.0028883057
  30     -0.0247537945
  31     -0.0358271143
  32      0.0087799873
  33     -0.0142762529
  34     -0.0034856734
  35     -0.0129846786
  36      0.0604706361
  37      0.0109010643
  38     -0.0046721999
  39      0.2373024998
  40      0.1465294003
  41      0.1355799231
Sym=      A1        
Ene=      -0.3811739346
Spin=     Alpha     
Occup=    2.0       
   1      0.0148150729
   2      0.0019678026
   3     -0.3649812178
   4     -0.0946518742
   5     -0.0435575828
   6      0.0492440307
   7      0.3251494350
   8      0.0895273165
   9     -0.0185813139
  10     -0.0923282985
  11      0.5515207443