[Molden Format]
Written by Sparrow, the semiempirical library of the SCINE software package
[Atoms] (AU)
C    1         6                1.1742002253       3.2478911891      -1.1642035741
C    2         6                2.4778844847       1.6616739766       0.1815459889
C    3         6                2.3606458759      -1.3523447072      -0.1246274380
C    4         6                0.0820708056      -2.7361155598       0.2892981725
C    5         6               -2.1569522969      -1.2034153912       1.1001985502
C    6         6               -3.7832317032       0.1534268641      -0.3107465641
H    7         1                4.1629532708       2.2473945892       1.5055070096
H    8         1                3.9377168139      -2.6805009199      -0.0833747167
H    9         1                0.0701466338      -5.0457577276       0.4988687999
H    10        1               -2.5148097332      -1.0663724526       3.1908781519
H    11        1               -4.7069865251       1.4668621104       1.0785611861
H    12        1               -3.7009908222      -0.2164870249      -2.2459206028
H    13        1                0.7930424658       5.3356039207      -0.5453371653
H    14        1                0.1161992595       2.6869070915      -3.0587673984
[GTO]
1 0
s    6    1.00 
    116.0690322429      -0.1046234805
     21.2858804144      -0.1459904193
      5.9817916163      -0.1403997584
      0.8554094819       0.2121298425
      0.3882374328       0.1970386706
      0.1851482379       0.0344592482
p    6    1.00 
     17.0160777741       0.3903657330
      4.4374470513       0.4722439228
      1.5877608354       0.4822910285
      0.6637143790       0.3458254681
      0.3034954267       0.1288339964
      0.1434819294       0.0132401392

2 0
s    6    1.00 
    116.0690322429      -0.1046234805
     21.2858804144      -0.1459904193
      5.9817916163      -0.1403997584
      0.8554094819       0.2121298425
      0.3882374328       0.1970386706
      0.1851482379       0.0344592482
p    6    1.00 
     17.0160777741       0.3903657330
      4.4374470513       0.4722439228
      1.5877608354       0.4822910285
      0.6637143790       0.3458254681
      0.3034954267       0.1288339964
      0.1434819294       0.0132401392

3 0
s    6    1.00 
    116.0690322429      -0.1046234805
     21.2858804144      -0.1459904193
      5.9817916163      -0.1403997584
      0.8554094819       0.2121298425
      0.3882374328       0.1970386706
      0.1851482379       0.0344592482
p    6    1.00 
     17.0160777741       0.3903657330
      4.4374470513       0.4722439228
      1.5877608354       0.4822910285
      0.6637143790       0.3458254681
      0.3034954267       0.1288339964
      0.1434819294       0.0132401392

4 0
s    6    1.00 
    116.0690322429      -0.1046234805
     21.2858804144      -0.1459904193
      5.9817916163      -0.1403997584
      0.8554094819       0.2121298425
      0.3882374328       0.1970386706
      0.1851482379       0.0344592482
p    6    1.00 
     17.0160777741       0.3903657330
      4.4374470513       0.4722439228
      1.5877608354       0.4822910285
      0.6637143790       0.3458254681
      0.3034954267       0.1288339964
      0.1434819294       0.0132401392

5 0
s    6    1.00 
    116.0690322429      -0.1046234805
     21.2858804144      -0.1459904193
      5.9817916163      -0.1403997584
      0.8554094819       0.2121298425
      0.3882374328       0.1970386706
      0.1851482379       0.0344592482
p    6    1.00 
     17.0160777741       0.3903657330
      4.4374470513       0.4722439228
      1.5877608354       0.4822910285
      0.6637143790       0.3458254681
      0.3034954267       0.1288339964
      0.1434819294       0.0132401392

6 0
s    6    1.00 
    116.0690322429      -0.1046234805
     21.2858804144      -0.1459904193
      5.9817916163      -0.1403997584
      0.8554094819       0.2121298425
      0.3882374328       0.1970386706
      0.1851482379       0.0344592482
p    6    1.00 
     17.0160777741       0.3903657330
      4.4374470513       0.4722439228
      1.5877608354       0.4822910285
      0.6637143790       0.3458254681
      0.3034954267       0.1288339964
      0.1434819294       0.0132401392

7 0
s    6    1.00 
     37.1831737285       0.0983412856
      6.8174942006       0.1484283848
      1.9072891990       0.1949490512
      0.6552053164       0.1923335159
      0.2544353976       0.1063406754
      0.1047905476       0.0171084112

8 0
s    6    1.00 
     37.1831737285       0.0983412856
      6.8174942006       0.1484283848
      1.9072891990       0.1949490512
      0.6552053164       0.1923335159
      0.2544353976       0.1063406754
      0.1047905476       0.0171084112

9 0
s    6    1.00 
     37.1831737285       0.0983412856
      6.8174942006       0.1484283848
      1.9072891990       0.1949490512
      0.6552053164       0.1923335159
      0.2544353976       0.1063406754
      0.1047905476       0.0171084112

10 0
s    6    1.00 
     37.1831737285       0.0983412856
      6.8174942006       0.1484283848
      1.9072891990       0.1949490512
      0.6552053164       0.1923335159
      0.2544353976       0.1063406754
      0.1047905476       0.0171084112

11 0
s    6    1.00 
     37.1831737285       0.0983412856
      6.8174942006       0.1484283848
      1.9072891990       0.1949490512
      0.6552053164       0.1923335159
      0.2544353976       0.1063406754
      0.1047905476       0.0171084112

12 0
s    6    1.00 
     37.1831737285       0.0983412856
      6.8174942006       0.1484283848
      1.9072891990       0.1949490512
      0.6552053164       0.1923335159
      0.2544353976       0.1063406754
      0.1047905476       0.0171084112

13 0
s    6    1.00 
     37.1831737285       0.0983412856
      6.8174942006       0.1484283848
      1.9072891990       0.1949490512
      0.6552053164       0.1923335159
      0.2544353976       0.1063406754
      0.1047905476       0.0171084112

14 0
s    6    1.00 
     37.1831737285       0.0983412856
      6.8174942006       0.1484283848
      1.9072891990       0.1949490512
      0.6552053164       0.1923335159
      0.2544353976       0.1063406754
      0.1047905476       0.0171084112

[5D]
[7F]
[9G]
[MO]
Sym=      A1        
Ene=      -1.0096168497
Spin=     Alpha     
Occup=    2.0       
   1      0.2100523920
   2      0.0298030670
   3     -0.0758914636
   4      0.0457219137
   5      0.2634832316
   6     -0.0589110639
   7     -0.0150722075
   8     -0.0402712020
   9      0.2835725969
  10     -0.0998723114
  11      0.0100723207
  12      0.0259038429
  13      0.3574241477
  14     -0.0356623289
  15      0.1240543054
  16      0.0185589098
  17      0.5230112099
  18     -0.0185178202
  19      0.0517719204
  20     -0.0864131239
  21      0.4329171836
  22      0.1203568225
  23     -0.0844253187
  24      0.0857043713
  25      0.0805113223
  26      0.0964991448
  27      0.0944371493
  28      0.1976515544
  29      0.1715514930
  30      0.1801947115
  31      0.0622369797
  32      0.0807435970
Sym=      A1        
Ene=      -0.9588267802
Spin=     Alpha     
Occup=    2.0       
   1      0.4725086362
   2      0.1078126866
   3     -0.1200027566
   4      0.1040108677
   5      0.5297489143
   6     -0.0732321268
   7      0.0802935466
   8     -0.0957939244
   9      0.2507866651
  10      0.0068537673
  11      0.0965472233
  12      0.0044963820
  13      0.0208423611
  14      0.1246105851
  15      0.0148094469
  16     -0.0218075224
  17     -0.2871017690
  18      0.1132997133
  19     -0.0569234321
  20      0.0404492141
  21     -0.3217734903
  22     -0.0505547718
  23      0.0577815581
  24     -0.0685188142
  25      0.1828155257
  26      0.0944317267
  27      0.0013624792
  28     -0.1181872039
  29     -0.1366985422
  30     -0.1242427176
  31      0.1547118368
  32      0.1438662681
Sym=      A1        
Ene=      -0.9045381113
Spin=     Alpha     
Occup=    2.0       
   1     -0.3267306788
   2     -0.0427551132
   3      0.0180430234
   4     -0.0492536267
   5     -0.1607788251
   6      0.0536786259
   7     -0.2118694538
   8      0.0674934849
   9      0.4601136699
  10     -0.1024425897
  11     -0.1770995159
  12      0.0476772195
  13      0.4779752295
  14      0.1697463581
  15      0.0452120826
  16     -0.0017928021
  17     -0.0399958088
  18      0.2083589863
  19     -0.1372334614
  20      0.0216917731
  21     -0.2808868966
  22     -0.0059155962
  23      0.0036961033
  24     -0.0388901719
  25     -0.0536142300
  26      0.2330739079
  27      0.1739977560
  28     -0.0264247448
  29     -0.1366141712
  30     -0.1157627592
  31     -0.1340273079
  32     -0.1111754774
Sym=      A1        
Ene=      -0.7596136970
Spin=     Alpha     
Occup=    2.0       
   1     -0.2500725362
   2      0.0450120608
   3     -0.0838781261
   4      0.0207183650
   5      0.1682476286
   6      0.1251090115
   7     -0.2130387107
   8      0.0694074732
   9      0.3636733801
  10      0.1915291480
  11      0.0687521455
  12     -0.0058204660
  13     -0.3115650467
  14      0.2494930701
  15      0.0352535444
  16     -0.0957706573
  17     -0.2570794149
  18     -0.2123954765
  19      0.2059448071
  20     -0.0894163907
  21      0.3197482703
  22     -0.0798669955
  23      0.0754918773
  24     -0.0461898836
  25      0.1204206577
  26      0.2374894926
  27     -0.1545406866
  28     -0.1416871741
  29      0.1772009384
  30      0.1740780994
  31     -0.1526691756
  32     -0.1115410438
Sym=      A1        
Ene=      -0.7055180546
Spin=     Alpha     
Occup=    2.0       
   1     -0.3151022290
   2      0.1621387172
   3     -0.1444933664
   4      0.1546207802
   5      0.3322090974
   6      0.1600668257
   7     -0.0949289061
   8      0.1431296293
   9     -0.0605835964
  10      0.0669731245
  11      0.2707549108
  12      0.0527720757
  13     -0.1232983344
  14     -0.1907378250
  15      0.0935239121
  16      0.1107142880
  17      0.2712400995
  18      0.0381631921
  19     -0.0439748456
  20      0.1885246879
  21     -0.2289669143
  22      0.0681512204
  23     -0.0655867208
  24      0.1883481058
  25      0.2527809793
  26     -0.0982719070
  27     -0.0986915050
  28      0.2299689138
  29     -0.0819844386
  30     -0.2243207898
  31     -0.2138002437
  32     -0.2429692154
Sym=      A1        
Ene=      -0.6389095499
Spin=     Alpha     
Occup=    2.0       
   1     -0.1662603833
   2      0.1271572593
   3     -0.1100479834
   4      0.1368274203
   5      0.1820271045
   6      0.0663967011
   7      0.0690829970
   8      0.0853998094
   9     -0.2043738089
  10     -0.1625662122
  11      0.1065778046
  12      0.0063958601
  13      0.2288152828
  14     -0.1652946220
  15     -0.0653938583
  16     -0.0321741344
  17     -0.1462792383
  18      0.1526010182
  19     -0.1573409628
  20     -0.3421723878
  21      0.1434257169
  22      0.0073238126
  23     -0.0717881945
  24     -0.3921229538
  25      0.1553362001
  26     -0.2268163598
  27      0.1418996111
  28     -0.3039574783
  29     -0.1145751899
  30      0.3191705867
  31     -0.1353473181
  32     -0.1538947098
Sym=      A1        
Ene=      -0.5954318759
Spin=     Alpha     
Occup=    2.0       
   1     -0.0173957431
   2      0.1489202681
   3      0.2021917258
   4      0.2185291300
   5      0.0640522151
   6      0.1922243871
   7      0.3113351712
   8      0.1804122414
   9     -0.1176059340
  10      0.1284943624
  11     -0.2800690514
  12      0.0443392619
  13      0.1522287294
  14      0.0874448425
  15     -0.4001371157
  16      0.0425392412
  17     -0.0824573405
  18     -0.1377898268
  19     -0.0161544611
  20      0.1468868161
  21      0.0824737553
  22     -0.1787252242
  23      0.1123988065
  24      0.1487300738
  25      0.2477725623
  26      0.1253871975
  27      0.3279927532
  28      0.0737055686
  29      0.2044318932
  30     -0.0648477049
  31      0.1323203751
  32     -0.2002861828
Sym=      A1        
Ene=      -0.5518205646
Spin=     Alpha     
Occup=    2.0       
   1     -0.0639389323
   2      0.0800736929
   3     -0.3640183993
   4      0.0563246679
   5      0.0500649484
   6     -0.2581467234
   7     -0.0000346474
   8     -0.1790297361
   9     -0.0798218921
  10     -0.3531084128
  11      0.0717754921
  12     -0.0108242936
  13      0.1386217643
  14      0.1698326891
  15     -0.0276078556
  16     -0.0341136255
  17     -0.1589535880
  18      0.0245075473
  19      0.0898570814
  20      0.1383175612
  21      0.0747142940
  22     -0.2146081180
  23      0.3126725076
  24      0.2169139086
  25     -0.1884233099
  26     -0.2698666912
  27      0.0839903468
  28      0.0200333409
  29      0.3340848470
  30     -0.1302981783
  31     -0.2664680938
  32     -0.0374043449
Sym=      A1        
Ene=      -0.5250667414
Spin=     Alpha     
Occup=    2.0       
   1     -0.0095480583
   2     -0.0672671764
   3      0.3727280421
   4      0.2327040613
   5     -0.0318108783
   6      0.0289384500
   7      0.0709917790
   8      0.2789372278
   9      0.0156010200
  10     -0.3719470332
  11     -0.0365363579
  12      0.1151816601
  13      0.0094206334
  14      0.1925599933
  15      0.4284546069
  16     -0.0265711570
  17     -0.0403212045
  18      0.1423273731
  19      0.1357819347
  20     -0.0441122079
  21      0.0168806270
  22      0.0161125171
  23      0.1415353312
  24      0.0572774191
  25      0.1301554086
  26     -0.1974796408
  27     -0.3020153929
  28     -0.0636191196
  29      0.0893274272
  30     -0.0479355723
  31      0.2930152177
  32     -0.1718043978
Sym=      A1        
Ene=      -0.5116504446
Spin=     Alpha     
Occup=    2.0       
   1     -0.0278480982
   2      0.2413263896
   3     -0.1445219035
   4      0.3010407212
   5     -0.0385588176
   6     -0.1973735154
   7      0.2972402755
   8     -0.1678626754
   9      0.0064212274
  10     -0.0341664167
  11     -0.2767294831
  12     -0.1239620092
  13     -0.0533201741
  14      0.1364563266
  15      0.0479676092
  16     -0.1849990161
  17      0.0726724231
  18     -0.1960475382
  19      0.1653656627
  20     -0.2520267802
  21     -0.0728147090
  22      0.2911505089
  23     -0.2804473621
  24      0.1611302355
  25     -0.1548327060
  26      0.1067312148
  27     -0.0760705267
  28     -0.1251322961
  29     -0.2086821214
  30     -0.1357830044
  31     -0.0919784940
  32     -0.2546362663
Sym=      A1        
Ene=      -0.4816509049
Spin=     Alpha     
Occup=    2.0       
   1     -0.0061459751
   2      0.1455489987
   3     -0.0731356257
   4      0.2442810952
   5     -0.0520727836
   6     -0.1888938805
   7      0.1799939284
   8     -0.1136370828
   9      0.0282286284
  10      0.0864672697
  11     -0.1700410434
  12      0.0434717363
  13     -0.1055457913
  14      0.0236866853
  15      0.1618578882
  16      0.1502617166
  17      0.0354022253
  18      0.1549829477
  19     -0.1343836401
  20      0.3926128001
  21      0.0288569132
  22     -0.1761778254
  23      0.0768244588
  24     -0.4319473144
  25     -0.1600324046
  26      0.1462900891
  27     -0.1721724634
  28      0.3012776422
  29     -0.0582966500
  30      0.3201217528
  31     -0.0301848823
  32     -0.1856295037
Sym=      A1        
Ene=      -0.4380868752
Spin=     Alpha     
Occup=    2.0       
   1      0.0099146483
   2      0.0748768066
   3      0.1064058568
   4      0.2062275526
   5     -0.0413750621
   6     -0.1260588679
   7     -0.0584222401
   8     -0.1419368149
   9      0.0614495537
  10      0.3194518989
  11      0.0937161527
  12     -0.0870262727
  13      0.0173435327
  14     -0.4350765790
  15      0.1042369632
  16      0.0441841238
  17      0.0153734243
  18      0.2700334560
  19     -0.1912509740
  20     -0.2614719100
  21      0.0354391124
  22     -0.1424528861
  23      0.2307372481
  24      0.1875590426
  25     -0.1917888987
  26      0.2024908896
  27     -0.0670502344
  28     -0.2441410693
  29      0.2687866564
  30     -0.1501184485
  31      0.1216993825
  32     -0.1874697730
Sym=      A1        
Ene=      -0.4280442949
Spin=     Alpha     
Occup=    2.0       
   1      0.0081447986
   2      0.1790821410
   3     -0.1940832239
   4     -0.3569374424
   5     -0.0426535444
   6      0.3411480225
   7      0.3439380666
   8     -0.0482241644
   9     -0.0993522043
  10      0.0293265000
  11     -0.3516612693
  12     -0.0456050688
  13      0.0258118123
  14     -0.0572020702
  15      0.2794744821
  16     -0.0158236465
  17      0.0342312605
  18      0.2213926378
  19     -0.0061948367
  20     -0.0737156313
  21      0.0029189358
  22     -0.0057820296
  23      0.1781480940
  24      0.0444171870
  25      0.2452950203
  26      0.1259363606
  27     -0.2237960210
  28     -0.0686299095
  29      0.1123363845
  30     -0.0468450279
  31     -0.2498831367
  32      0.2184239128
Sym=      A1        
Ene=      -0.3915027266
Spin=     Alpha     
Occup=    2.0       
   1      0.0003884643
   2      0.3698813823
   3      0.2472357234
   4     -0.1500588056
   5     -0.0226221666
   6      0.2931057476
   7     -0.0654328488
   8     -0.3400679136
   9      0.1014466485
  10     -0.1791782646
  11      0.1243901763
  12     -0.3457654030
  13      0.0427758262
  14     -0.0040932532
  15      0.0749497283
  16     -0.3085780357
  17     -0.0025858494
  18     -0.1978802047
  19     -0.2563218628
  20      0.0829175428
  21      0.0005695364
  22     -0.2930169867
  23     -0.1903721752
  24      0.0047484349
  25     -0.0348899051
  26     -0.1341719716
  27     -0.0649048574
  28      0.0882037250
  29      0.0220091318
  30      0.0187845424
  31      0.1247094677
  32     -0.1078064972
Sym=      A1        
Ene=      -0.3590503520
Spin=     Alpha     
Occup=    2.0       
   1     -0.0179622557
   2      0.2465333400
   3      0.1626196985
   4     -0.0565902639
   5     -0.0137480000
   6      0.1726214349
   7     -0.0754176583
   8     -0.2467660473
   9     -0.0011260509
  10      0.0453501885
  11      0.1306085249
  12     -0.1535528427
  13      0.0063348291
  14      0.0066333701
  15     -0.1468459304
  16     -0.0643678939
  17      0.0079255976
  18      0.2911578159
  19      0.4682441200
  20      0.0931541367
  21     -0.0162812204
  22      0.4559527113
  23      0.3786802537
  24     -0.1360305684
  25     -0.0593457882
  26     -0.0398781060
  27      0.1552883338
  28      0.0821387464
  29     -0.0608086245
  30      0.0585122456
  31      0.0898391963
  32     -0.1010133559
Sym=      A1        
Ene=      -0.3391965637
Spin=     Alpha     
Occup=    2.0       
   1     -0.0375381888
   2     -0.3525931591
   3     -0.1031899049
   4      0.1477439965
   5      0.0324686847
   6     -0.1260609458
   7      0.0381378976
   8      0.2777340815
   9      0.0048193388
  10      0.0041858771
  11     -0.0666930979
  12     -0.5597946951
  13      0.0067653905
  14     -0.1746274230
  15     -0.0259248450
  16     -0.5591202022
  17      0.0242484551
  18      0.0637154997
  19      0.0078022779
  20      0.1082958620
  21     -0.0466221365
  22      0.0099238275
  23      0.1329478279
  24     -0.0693526240
  25      0.1270697994
  26      0.0559996069
  27     -0.0076375751
  28      0.1338229830
  29      0.0163001581
  30      0.0274169663
  31     -0.0310583049
  32      0.0643756775
Sym=      A1        
Ene=      0.0217623503
Spin=     Alpha     
Occup=    0.0       
   1      0.0324038873
   2      0.3020645676
   3      0.0712037222
   4     -0.1729132010
   5      0.0250646658
   6     -0.1869515357
   7     -0.0417479220
   8      0.2010081207
   9     -0.0274402405
  10      0.0421255063
  11     -0.0017987276
  12      0.5820011486
  13      0.0230876880
  14     -0.1701438898
  15     -0.0254507790
  16     -0.5955626927
  17     -0.0074768815
  18     -0.0989229388
  19     -0.0696813758
  20      0.0016305126
  21     -0.0415308195
  22      0.0658439780
  23      0.1398767150
  24     -0.0468587592
  25     -0.1009931294
  26      0.0537064978
  27     -0.0362284225
  28      0.1033369666
  29      0.0119164278
  30      0.0016788581
  31     -0.0301596023
  32      0.0167420683
Sym=      A1        
Ene=      0.0435270627
Spin=     Alpha     
Occup=    0.0       
   1      0.0103371259
   2      0.1542972183
   3      0.0528535179
   4     -0.1168385339
   5      0.0029090328
   6     -0.1371789756
   7      0.0064936494
   8      0.1557576305
   9     -0.0479517516
  10      0.0735423393
  11      0.0457724815
  12     -0.0157137697
  13      0.0151111535
  14     -0.0546567722
  15      0.0288826969
  16     -0.0717500146
  17     -0.0111715842
  18      0.4020412750
  19      0.5430096264
  20      0.0349406709
  21      0.0137973985
  22     -0.4630240378
  23     -0.4509469509
  24      0.0696242181
  25     -0.0246702148
  26      0.0458560755
  27      0.1058009735
  28     -0.0117925169
  29     -0.0409649766
  30      0.0132271700
  31     -0.0224463229
  32      0.0154246405
Sym=      A1        
Ene=      0.0605723780
Spin=     Alpha     
Occup=    0.0       
   1     -0.0061017670
   2      0.4375682991
   3      0.1642006825
   4     -0.2954782988
   5      0.0191010129
   6     -0.4048631111
   7      0.0358535417
   8      0.4624972354
   9      0.0928065723
  10     -0.0790393450
  11      0.0359463943
  12     -0.3665125927
  13     -0.0803731338
  14      0.0279326861
  15     -0.0284752339
  16      0.2987094398
  17      0.0094497325
  18     -0.0827307426
  19     -0.1449612616
  20     -0.0072745042
  21      0.0176214910
  22      0.1313285439
  23      0.0978359911
  24     -0.0040375188
  25     -0.0323030560
  26      0.0137491786
  27      0.0259046956
  28     -0.0519883029
  29      0.0096389867
  30     -0.0025421990
  31     -0.0631434483
  32      0.0561968267
Sym=      A1        
Ene=      0.1355216922
Spin=     Alpha     
Occup=    0.0       
   1     -0.0460134775
   2      0.0528011113
   3     -0.0703760376
   4     -0.1106064393
   5      0.3121704260
   6     -0.0809427364
   7     -0.5645914095
   8     -0.0506994295
   9     -0.3722624990
  10     -0.0475730848
  11     -0.4901215115
  12     -0.0766932965
  13      0.0545506222
  14      0.0797167163
  15     -0.1384794064
  16      0.0242087175
  17      0.0389953763
  18      0.0785133491
  19     -0.0265516807
  20     -0.0116546543
  21      0.0086843649
  22      0.0025148537
  23     -0.0253929298
  24      0.0070603888
  25     -0.0069530733
  26      0.0840377511
  27     -0.2373111355
  28     -0.0123017904
  29      0.0182699923
  30      0.0008066662
  31      0.2324084735
  32     -0.0964709286
Sym=      A1        
Ene=      0.1647695543
Spin=     Alpha     
Occup=    0.0       
   1      0.0048016712
   2      0.0146341017
   3      0.0171911501
   4      0.0291108528
   5      0.0157589591
   6      0.0346825805
   7      0.0325961229
   8      0.0510063212
   9     -0.0166964566
  10      0.1984574924
  11      0.0487838770
  12      0.0074602656
  13     -0.2725668362
  14      0.5605173740
  15     -0.1250217634
  16     -0.1827378233
  17      0.2879252471
  18      0.4234173993
  19     -0.3203571184
  20     -0.1790324249
  21     -0.0542788070
  22      0.0432418001
  23     -0.0922263096
  24     -0.0192142754
  25     -0.0890946504
  26     -0.1776790664
  27      0.1128151488
  28      0.0215430914
  29      0.2183608450
  30      0.0006314502
  31     -0.0325737997
  32      0.0437191519
Sym=      A1        
Ene=      0.1761930854
Spin=     Alpha     
Occup=    0.0       
   1      0.0120406872
   2     -0.0384543369
   3     -0.0889180992
   4     -0.1294239419
   5     -0.0789917297
   6     -0.1354863317
   7     -0.1037236467
   8     -0.1467466217
   9      0.0177629114
  10     -0.2819380392
  11     -0.1426030323
  12      0.0581666524
  13     -0.4554843431
  14     -0.1008503850
  15      0.2464128361
  16     -0.0200824786
  17      0.1389153209
  18     -0.0122277263
  19     -0.0277109098
  20     -0.0907987798
  21     -0.0376366490
  22     -0.0962914029
  23      0.0989789553
  24     -0.0860120263
  25      0.2917781482
  26      0.1368025211
  27      0.5638884863
  28     -0.0218435947
  29     -0.0267621649
  30     -0.0546123250
  31      0.1221551330
  32     -0.1930979591
Sym=      A1        
Ene=      0.1874720382
Spin=     Alpha     
Occup=    0.0       
   1     -0.1552904170
   2      0.0859298225
   3      0.0417510633
   4      0.2303374747
   5      0.2833260123
   6      0.3035139331
   7     -0.0261071913
   8      0.1812420629
   9     -0.1128953255
  10     -0.0313834114
  11     -0.1129576972
  12     -0.0427001260
  13     -0.0901260269
  14     -0.0171132786
  15      0.2847569237
  16      0.0198955348
  17      0.0394856556
  18     -0.1227548912
  19      0.0436631410
  20     -0.0353321755
  21     -0.0067589275
  22     -0.0928575238
  23      0.1109038032
  24     -0.0376046065
  25     -0.5317338583
  26      0.0614536966
  27      0.3088965045
  28     -0.0116441021
  29     -0.1036848681
  30     -0.0395524577
  31      0.0278133950
  32      0.3901840912
Sym=      A1        
Ene=      0.1962027112
Spin=     Alpha     
Occup=    0.0       
   1     -0.0768490208
   2      0.0365651520
   3     -0.0004836088
   4      0.0887922778
   5      0.0171691773
   6      0.0583469894
   7      0.0036210995
   8     -0.0111171440
   9      0.0694587871
  10     -0.2484652749
  11     -0.0582173312
  12      0.0548664197
  13     -0.1529888897
  14     -0.2065156675
  15     -0.0382409859
  16     -0.0235862516
  17     -0.1635237140
  18      0.1601022400
  19     -0.1092677185
  20      0.3764526023
  21     -0.1063819991
  22      0.3565518024
  23     -0.3503259559
  24      0.2008819332
  25     -0.0449106417
  26      0.1159107676
  27      0.0644887305
  28     -0.2366862123
  29      0.3877601660
  30      0.2933144874
  31      0.0358397833
  32      0.1383503826
Sym=      A1        
Ene=      0.2032946568
Spin=     Alpha     
Occup=    0.0       
   1      0.0068394867
   2     -0.0244402958
   3     -0.1120401083
   4     -0.1555729712
   5      0.0045925474
   6     -0.0738282312
   7     -0.0171273427
   8      0.0245950780
   9     -0.2814091220
  10      0.3792022297
  11      0.1353017439
  12     -0.0724331456
  13      0.2633813917
  14      0.1816608834
  15      0.5106744483
  16     -0.0247351758
  17     -0.2943909488
  18     -0.1126061931
  19     -0.0416353531
  20      0.0393192077
  21     -0.0485482920
  22      0.2049902661
  23     -0.1374375607
  24      0.0495498005
  25      0.0282949005
  26      0.0110538188
  27      0.2452765747
  28      0.1556130632
  29      0.1851399972
  30      0.0865586391
  31      0.1359903129
  32     -0.1789175764
Sym=      A1        
Ene=      0.2076107802
Spin=     Alpha     
Occup=    0.0       
   1      0.0892758275
   2     -0.0427212188
   3      0.0079652509
   4     -0.0711500443
   5      0.0132059636
   6     -0.0160593843
   7     -0.0194453710
   8      0.0175234717
   9     -0.0529998004
  10      0.1884885276
  11      0.0058332055
  12      0.0043727467
  13      0.0673674878
  14      0.1237555838
  15      0.1157545320
  16     -0.1113212540
  17      0.2824293000
  18     -0.0441785584
  19     -0.0433112306
  20      0.4730865304
  21      0.1387968509
  22     -0.0618272618
  23      0.1464959453
  24      0.1592873304
  25     -0.0042428950
  26     -0.1012859100
  27      0.0623203349
  28     -0.6211157382
  29     -0.3032942062
  30      0.0993554489
  31     -0.0530257726
  32     -0.1341064401
Sym=      A1        
Ene=      0.2093908085
Spin=     Alpha     
Occup=    0.0       
   1     -0.3053217934
   2      0.2363684002
   3     -0.4769706183
   4      0.0781043198
   5     -0.2387266296
   6     -0.0244786024
   7      0.0417580502
   8      0.0572754475
   9      0.1377896194
  10      0.1043742449
  11      0.0428094297
  12      0.0164557325
  13      0.0248440113
  14     -0.0005847244
  15     -0.0530453155
  16     -0.0101040350
  17      0.0483896937
  18     -0.0065265035
  19      0.0129196447
  20      0.0246973522
  21      0.0163143773
  22     -0.0454658249
  23      0.0396845100
  24      0.0183923343
  25      0.1265906435
  26     -0.1649199243
  27     -0.0497715233
  28     -0.0546847261
  29     -0.0704544877
  30      0.0003264717
  31      0.6273816331
  32      0.2539805521
Sym=      A1        
Ene=      0.2195450613
Spin=     Alpha     
Occup=    0.0       
   1      0.0173044245
   2      0.2294904948
   3      0.2360660665
   4      0.4142827408
   5     -0.2250474870
   6     -0.1855727717
   7     -0.3141110470
   8     -0.1672838029
   9     -0.0867817872
  10      0.1531060461
  11     -0.0915597756
  12     -0.0075194233
  13      0.0575877317
  14      0.0450876749
  15      0.1292976837
  16     -0.0122572581
  17     -0.0214595497
  18     -0.0461973938
  19      0.0070485907
  20      0.0068572994
  21     -0.0232058708
  22     -0.0027473825
  23      0.0122123962
  24      0.0249545777
  25      0.3944897987
  26     -0.0973613239
  27      0.0637478914
  28      0.0018761817
  29     -0.0083853164
  30      0.0325190131
  31     -0.2781756665
  32      0.4411652773
Sym=      A1        
Ene=      0.2236692167
Spin=     Alpha     
Occup=    0.0       
   1     -0.3048773306
   2     -0.0421184859
   3      0.1270628608
   4     -0.0211463530
   5      0.0701112417
   6     -0.1636260400
   7      0.1721299469
   8     -0.1814790086
   9     -0.3385821942
  10     -0.2061644136
  11      0.3890718822
  12      0.0094578847
  13      0.0767483647
  14      0.2169482046
  15     -0.0466983625
  16     -0.0490221485
  17      0.0827081435
  18      0.0317471283
  19     -0.0608673748
  20      0.0104961410
  21      0.0469407067
  22     -0.0349892652
  23      0.0511336817
  24      0.0248322184
  25      0.0982046373
  26      0.5822510886
  27     -0.0851260619