[Molden Format]
made by pyscf v[2.5.0]
[Atoms] (AU)
O   1   8     0.00000000000000     0.00000000000000     0.00000000000000
H   2   1     0.00000000000000     0.00000000000000     1.79523981833681
H   3   1     1.69257099798919     0.00000000000000    -0.59840634378315
[GTO]
1 0
 s    3 1.00
             130.70932    0.15432896872316
             23.808861    0.53532813557095
             6.4436083    0.44463453632131
 s    3 1.00
             5.0331513  -0.099967228656673
             1.1695961    0.39951282463148
              0.380389    0.70011546059208
 p    3 1.00
             5.0331513    0.15591626847816
             1.1695961    0.60768371406861
              0.380389    0.39195738617424

2 0
 s    3 1.00
            3.42525091    0.15432897070298
            0.62391373    0.53532814243847
             0.1688554    0.44463454202535

3 0
 s    3 1.00
            3.42525091    0.15432897070298
            0.62391373    0.53532814243847
             0.1688554    0.44463454202535

[5d]
[7f]
[9g]

[MO]
 Sym= A
 Ene=    -20.23339442
 Spin= Alpha
 Occup=    2.00000
   1      0.99409988459306
   2     0.026779906142343
   3    0.0034662982832433
   4    -1.6957635066868e-19
   5    0.0024510547685525
   6    -0.0060839340390325
   7    -0.006083932549986
 Sym= A
 Ene=    -1.265839422
 Spin= Alpha
 Occup=    2.00000
   1     -0.23288909848478
   2      0.83178802872298
   3      0.10334938004535
   4    -3.2868515933577e-17
   5     0.073079406271484
   6      0.16022400684796
   7      0.16022396446476
 Sym= A
 Ene=   -0.6293650745
 Spin= Alpha
 Occup=    2.00000
   1    1.6523992573542e-08
   2    -9.0165485381894e-08
   3     -0.34656585545334
   4    2.2518117764307e-16
   5      0.49011605797541
   6      0.44154234538735
   7     -0.44154235077973
 Sym= A
 Ene=   -0.4417249638
 Spin= Alpha
 Occup=    2.00000
   1      0.10023536893877
   2     -0.52342314717886
   3      0.64825914591903
   4    -2.3331189545969e-15
   5       0.4583904150402
   6      0.26908578247563
   7      0.26908584357531
 Sym= A
 Ene=   -0.3876717561
 Spin= Alpha
 Occup=    2.00000
   1    2.2796101205652e-16
   2    -1.2083483915545e-15
   3    1.2572934429024e-15
   4                     1
   5    1.5349800943947e-15
   6    4.2362456347144e-16
   7    8.7612447746482e-16
 Sym= A
 Ene=    0.6030824136
 Spin= Alpha
 Occup=    0.00000
   1     -0.13563160304094
   2      0.90858110925479
   3      0.58329563703952
   4    4.6280703814735e-17
   5      0.41245368741401
   6     -0.80733732470467
   7     -0.80733784795179
 Sym= A
 Ene=    0.7661348155
 Spin= Alpha
 Occup=    0.00000
   1    5.6775409713883e-08
   2    -4.295326976068e-07
   3      0.58252506411139
   4    3.3142330149468e-16
   5     -0.82381171472792
   6      0.84261490750307
   7     -0.84261423442106
